LAMMPS data file from restart file: timestep = 0,	procs = 1

1000 atoms
3 atom types
999 bonds
1 bond types
998 angles
1 angle types

-25.0000000000000000 25.0000000000000000 xlo xhi
-25.0000000000000000 25.0000000000000000 ylo yhi
-25.0000000000000000 25.0000000000000000 zlo zhi

Masses

1 1
2 1
3 1

Atoms

1 1 3 0.0000000000000000 0.0000000000000000 0.0000000000000000 0 0 0
2 1 3 0.8841860095558125 0.0683013119059825 0.4621147382389901 0 0 0
3 1 3 0.0656061579074795 0.5424758646982294 0.1379457700145998 0 0 0
4 1 2 0.3269891079679284 -0.1689608330354819 -0.5143860309390627 0 0 0
5 1 2 0.7292466145393179 0.0600508519729804 0.3720351705992091 0 0 0
6 1 1 -0.1044312507542238 -0.2658113092378076 -0.0738292357068313 0 0 0
7 1 2 0.7830415151151087 -0.6817526506701403 -0.2722855037552565 0 0 0
8 1 1 0.8886496649112635 0.2824003773629108 -0.5157107638071490 0 0 0
9 1 1 1.1750226319774708 -0.4234194666220521 0.1322158304693475 0 0 0
10 1 3 1.8377794385502150 0.1129488820157112 0.6547695692571365 0 0 0
11 1 1 2.7608232108764597 -0.2200689358840280 0.4621836732755467 0 0 0
12 1 1 3.4866087566405730 0.1764180275813725 1.0243521794744217 0 0 0
13 1 2 2.7007836365353093 0.5467863112325951 0.5290682052971873 0 0 0
14 1 1 3.1515195862859455 0.0523528728702513 1.2722859921077443 0 0 0
15 1 3 3.3727791189254720 -0.6851315505275184 1.9103776347906722 0 0 0
16 1 2 2.6556644519560715 -0.0207521118770683 2.1209637594899940 0 0 0
17 1 2 3.2047524582065594 -0.8270555146924056 2.3409118988325948 0 0 0
18 1 1 2.4594939754612200 -0.3877747218505960 2.8425314548074248 0 0 0
19 1 1 1.5125710908807266 -0.1436842183846209 2.6333500101822270 0 0 0
20 1 3 2.2068379714739335 -0.0287845891833089 1.9228631533574305 0 0 0
21 1 2 2.5425076750834740 0.5465933663407753 1.1770306933668450 0 0 0
22 1 1 2.7367092073703410 1.2482522242070297 0.4914939605543309 0 0 0
23 1 1 3.6916017185525520 0.9914123577356175 0.3424517682761759 0 0 0
24 1 1 4.6220586998023640 0.6709166200284298 0.5200251000436851 0 0 0
25 1 2 4.2348319892697150 1.4745621346809550 0.9719203992324927 0 0 0
26 1 1 4.0969014801734350 1.6474600730792839 1.9471544621927899 0 0 0
27 1 1 3.9810178573200385 1.7021746203772878 2.9389091215054375 0 0 0
28 1 1 3.6289725605148520 2.6063489314806720 3.1808449066594100 0 0 0
29 1 1 3.7872133836468724 3.5483919720717396 2.8850159838536165 0 0 0
30 1 2 4.6937800231674750 3.3084190655314596 3.2322189968516770 0 0 0
31 1 3 4.1881660863395840 3.5185896147515700 4.0689883122104080 0 0 0
32 1 1 3.4048353831220110 3.0101295646978565 4.4265654184351160 0 0 0
33 1 1 3.1151231086751820 2.3976522967859584 5.1620505605868950 0 0 0
34 1 2 2.2323788827007610 2.5930291363960440 5.5893566827672310 0 0 0
35 1 1 1.7578226341117165 3.2521346933057074 6.1727743991385240 0 0 0
36 1 2 1.5193979837898401 2.2812147462265630 6.1944109996737890 0 0 0
37 1 2 0.5814775758335341 2.1969628458691495 5.8579486308637820 0 0 0
38 1 3 1.3593369073811665 1.6424206954864662 5.5622835098683900 0 0 0
39 1 1 2.0600238948309686 0.9617837511302652 5.3483417056412260 0 0 0
40 1 3 1.1905905361248550 0.4956416500427048 5.1846432744860030 0 0 0
41 1 3 0.5124339088884455 -0.0239507119489276 4.6649054883906550 0 0 0
42 1 2 1.1749416729439779 -0.3684695679197634 3.9997812740917880 0 0 0
43 1 2 1.9473162385009015 0.1898009811977688 3.6968431212144015 0 0 0
44 1 3 1.8083402299129316 -0.7302431057250840 3.3305037332757705 0 0 0
45 1 3 1.9074591365521583 -1.1600833429557230 2.4330557889335083 0 0 0
46 1 2 2.4507206250924254 -1.1600107726261215 1.5934922417242690 0 0 0
47 1 3 1.6731540007978990 -1.4374123917069903 2.1577957828389140 0 0 0
48 1 3 2.5517120500316923 -1.9147811983189050 2.1737575058169740 0 0 0
49 1 1 2.8372818666645165 -2.3399685795516745 1.3148829103906599 0 0 0
50 1 1 2.8948350498571473 -1.9311613548942940 0.4040787139947903 0 0 0
51 1 1 2.9882213810723726 -0.9593529191012906 0.1875900139115849 0 0 0
52 1 1 3.5855893284341940 -1.5082257017710927 0.7723037933875199 0 0 0
53 1 1 4.5655362535325460 -1.3122402453298825 0.8082721802545361 0 0 0
54 1 2 3.6429559317938174 -1.6739584678123733 0.6740876898520629 0 0 0
55 1 2 2.9836415790575380 -1.9581516876277185 -0.0220005215744254 0 0 0
56 1 3 2.0587520262874160 -2.0540952949957627 -0.3899327699325843 0 0 0
57 1 2 2.5506793341748244 -2.8738738000236520 -0.6831404206664728 0 0 0
58 1 3 1.9165380292423180 -2.6971505453442170 0.0696103326602877 0 0 0
59 1 1 1.5766293254906630 -3.6191111484671366 0.2552193825557390 0 0 0
60 1 3 1.2408949416814496 -2.7821010043786660 -0.1768644544727309 0 0 0
61 1 3 1.9716500667696688 -3.0375146828221120 -0.8099211660091374 0 0 0
62 1 3 2.0022748191558380 -2.5173267072739343 -1.6634237111936110 0 0 0
63 1 3 1.6264010457635876 -3.3965016008517486 -1.9562895729431675 0 0 0
64 1 1 1.7469661818595246 -4.3787289097568100 -2.1001421419132393 0 0 0
65 1 1 1.0823355231278704 -5.0384305757065970 -2.4509409438168417 0 0 0
66 1 1 0.6722444998703330 -5.6759594375185550 -1.7987275561894989 0 0 0
67 1 2 -0.2512686126382554 -5.3004897781262240 -1.8771244049814348 0 0 0
68 1 2 0.3914671041587086 -5.0794046863793065 -1.1436312689803199 0 0 0
69 1 3 1.0645771291994874 -5.3405339546400940 -0.4517249173349633 0 0 0
70 1 3 0.1972063290269989 -4.9967658019819850 -0.8115739860098286 0 0 0
71 1 3 -0.6624842815457107 -4.4894774374297810 -0.7516526268540797 0 0 0
72 1 1 -0.4000656841644516 -3.6549190905724670 -0.2672469647905165 0 0 0
73 1 3 -1.0411338179450410 -4.0360700264375176 -0.9333968067482163 0 0 0
74 1 3 -0.4608443727064095 -4.8273637939031720 -1.1260579946264528 0 0 0
75 1 3 -1.1902171268871282 -4.9069586868813380 -0.4465875843283831 0 0 0
76 1 3 -1.8761948327403333 -5.3885909212576380 0.0988159157356212 0 0 0
77 1 3 -1.5644567890954670 -4.4407435601484790 0.1651843734762910 0 0 0
78 1 2 -2.5173806268355940 -4.6359080471716650 -0.0668651524262742 0 0 0
79 1 3 -2.6327237018534060 -4.9030959778516270 0.8898514120505803 0 0 0
80 1 1 -3.5594586085013167 -5.2130667550537280 1.1021731727841730 0 0 0
81 1 3 -4.5047943120096830 -4.9056979800597800 0.9932473088626042 0 0 0
82 1 3 -3.8231227886197600 -4.2007243621310410 1.1890434585278242 0 0 0
83 1 1 -2.8807282665440280 -3.8669568962267378 1.2112210026991985 0 0 0
84 1 2 -2.3865916191293080 -3.0269002191230943 1.4351266813572556 0 0 0
85 1 3 -2.5621130078918110 -2.3682232215733148 2.1667938563662830 0 0 0
86 1 3 -3.3931148506408950 -2.2446785458969667 2.7091707091722013 0 0 0
87 1 1 -3.3862208971315866 -2.9214238962058414 3.4453556073060394 0 0 0
88 1 1 -2.7382364578060720 -3.6830622440930165 3.4405396526039436 0 0 0
89 1 3 -2.1604160480945502 -3.0784669734001815 3.9887988365458700 0 0 0
90 1 1 -2.5630881690231440 -2.7488514839940525 4.8427360661889070 0 0 0
91 1 1 -3.0658743872002283 -3.5907202354041090 4.6466161431559370 0 0 0
92 1 1 -2.9757488115011560 -2.9640567693791957 5.4206770457692600 0 0 0
93 1 1 -2.4755648612088580 -3.8071872508440790 5.2233270847994490 0 0 0
94 1 2 -2.6910665276195505 -2.8744429675191077 4.9342818743239930 0 0 0
95 1 2 -2.6321250720651386 -3.8007547621496642 4.5621631245337620 0 0 0
96 1 1 -1.8190641287863310 -3.4936059607384270 5.0567250683853050 0 0 0
97 1 3 -1.3980687900732920 -4.1934827101963580 4.4797194701888100 0 0 0
98 1 1 -1.1657608833293150 -3.6603362256179990 5.2932229197487790 0 0 0
99 1 2 -0.9977147526160328 -4.2403864583425140 6.0902814028405340 0 0 0
100 1 3 -0.9322274208323975 -5.1546352164974050 5.6904556688161960 0 0 0
101 1 3 -1.1805182234836080 -6.1196974699438650 5.6067506851434260 0 0 0
102 1 3 -0.5578724414351140 -6.8657873110581530 5.8426790197776470 0 0 0
103 1 3 -1.4755768287611395 -6.7909170101523060 5.4525340524580200 0 0 0
104 1 2 -2.2670066939938676 -6.8167031328245680 6.0632498982449430 0 0 0
105 1 2 -1.6417584934276110 -6.7453921593875140 6.8404110351760940 0 0 0
106 1 2 -1.0525516375704245 -5.9472523264148090 6.7146808159239510 0 0 0
107 1 2 -1.8990516943079403 -5.9035488339484020 7.2452726163596735 0 0 0
108 1 3 -1.9029358362572042 -6.8593996261625180 6.9514458366663250 0 0 0
109 1 3 -2.1321685038208744 -6.3697881430993510 7.7927145094304610 0 0 0
110 1 2 -2.5423323247459524 -7.2751573578478330 7.9025881868507460 0 0 0
111 1 3 -2.5331320907461770 -7.4873116900220390 8.8797810516599740 0 0 0
112 1 3 -1.6331011359890364 -7.0633369668083100 8.9807251676588400 0 0 0
113 1 2 -2.4866179162627096 -7.5101744221809620 8.7126852559528490 0 0 0
114 1 3 -3.3318961081634573 -8.0003732874447660 8.9253113380572800 0 0 0
115 1 3 -2.7042749764288130 -7.5894408927057310 8.2640804540582290 0 0 0
116 1 3 -3.4447070218339424 -7.1209215006163635 8.7460036485336410 0 0 0
117 1 2 -4.2819645886012240 -6.5762609670589640 8.7944254419318530 0 0 0
118 1 1 -3.6731404011557470 -7.1862046776048830 9.3016746693800880 0 0 0
119 1 1 -2.9087433899243518 -7.0146325008029430 9.9231730180246790 0 0 0
120 1 3 -2.5143468684957395 -6.4387800487637800 9.2070408113997470 0 0 0
121 1 2 -1.8438380689781266 -6.9298436438188680 8.6509162791400900 0 0 0
122 1 3 -2.5259430621414736 -7.6401184666418270 8.4770127013579040 0 0 0
123 1 2 -3.0371110828096386 -6.8685961525955240 8.0982508057363540 0 0 0
124 1 2 -3.2150507100584846 -7.2056463617208520 7.1737322036611370 0 0 0
125 1 2 -2.6353478842010105 -7.5051756617320470 6.4159546425472820 0 0 0
126 1 3 -2.1551348522095237 -7.0160517716727850 5.6878383990264840 0 0 0
127 1 1 -2.2223435304056736 -7.2100840189522830 4.7091482128128925 0 0 0
128 1 3 -2.1420661696721040 -6.6576061368345690 5.5388009926698505 0 0 0
129 1 2 -1.7643022665665662 -5.7684987679260380 5.2803778511692885 0 0 0
130 1 1 -2.3146204209360404 -5.9552787539274850 6.0941733818775100 0 0 0
131 1 1 -2.9990021121933577 -5.7085471237582480 5.4080646417015770 0 0 0
132 1 2 -3.5725395760399720 -5.2083204456124910 4.7593520335031120 0 0 0
133 1 1 -4.4854207275949510 -4.8274317257025430 4.6124786656619130 0 0 0
134 1 1 -3.8213458516185583 -4.9314044863743165 5.3528800595930885 0 0 0
135 1 2 -4.1475839987792460 -4.8725704769848030 6.2963350032317960 0 0 0
136 1 3 -4.5625822276498220 -4.2221361077783115 6.9325044785992000 0 0 0
137 1 2 -5.4201627625606040 -4.6852642598259480 7.1562631452985626 0 0 0
138 1 2 -5.8811458536536945 -5.4134577143577784 6.6490857774051800 0 0 0
139 1 1 -6.6946192100892680 -5.5255930993471940 7.2197754950300170 0 0 0
140 1 2 -6.6018970489640450 -6.3449689068863280 6.6540671895793550 0 0 0
141 1 1 -7.2903798423450370 -6.8788434449459250 7.1449535520197460 0 0 0
142 1 3 -6.8723415865664930 -6.9901506381382665 8.0465381156904390 0 0 0
143 1 1 -7.3504144554083500 -7.1897344375875870 8.9018816952388490 0 0 0
144 1 1 -6.9494109267879090 -6.7278116094510480 9.6929717475592500 0 0 0
145 1 2 -7.4321860494763740 -7.0407655258333620 10.5108886303377570 0 0 0
146 1 3 -7.7171416592253110 -6.3357326756726440 9.8614819929626330 0 0 0
147 1 3 -6.9671143035684440 -6.2547023189471140 10.5179064342011510 0 0 0
148 1 1 -7.4185957577696490 -6.5555810382609640 11.3579281558110300 0 0 0
149 1 1 -7.1420968693681760 -5.8397564026974100 10.7167234647543790 0 0 0
150 1 3 -6.8222465584023590 -5.5194238963227110 11.6083976563371410 0 0 0
151 1 2 -5.8819652926174990 -5.8563929534806425 11.6565951223713370 0 0 0
152 1 2 -5.3897313923073160 -6.6394940065482590 11.2765181195550460 0 0 0
153 1 1 -5.7130089512683720 -6.1341328212190600 12.0765816746772930 0 0 0
154 1 2 -6.6532235914910840 -6.4310228152580935 11.9096902076983660 0 0 0
155 1 3 -7.6475270236119774 -6.5249324142153190 11.9601052064220090 0 0 0
156 1 1 -8.3667684290779840 -7.1930410187560540 12.1506903401599690 0 0 0
157 1 3 -7.8490907032062030 -6.6129288932001575 12.7795621028582480 0 0 0
158 1 1 -8.6829858913916040 -6.0892819293722460 12.6051698083179120 0 0 0
159 1 3 -9.1323942067253440 -5.3303446676606500 13.0763878034057420 0 0 0
160 1 3 -9.1966795548940840 -6.3119057251138470 12.8963731248315040 0 0 0
161 1 1 -8.5848380552774280 -5.9947720502395170 12.1717516984248970 0 0 0
162 1 3 -8.0153348228655310 -6.8161824287365630 12.1409124641649570 0 0 0
163 1 3 -8.6618756881748190 -6.7647803791648090 12.9020581393053600 0 0 0
164 1 2 -8.6800265243333940 -7.6208083952977250 13.4186688077417460 0 0 0
165 1 3 -8.1814370464265660 -6.7828851252365470 13.1966482546152870 0 0 0
166 1 1 -8.8987115533626290 -6.0870150179546870 13.1608421728530800 0 0 0
167 1 3 -9.4088815844203500 -5.2726633187882720 13.4375330644186290 0 0 0
168 1 1 -9.9040661994564180 -6.0804949226682410 13.1178452529457840 0 0 0
169 1 1 -10.8928299849234880 -6.1699062560060630 13.2376442096173030 0 0 0
170 1 1 -11.8562068341148700 -5.9621382538026730 13.0681228136152190 0 0 0
171 1 3 -12.8242421179594230 -5.7597621548286675 12.9199620772642600 0 0 0
172 1 3 -13.2872939084473120 -5.5257219968005815 12.0650888446992500 0 0 0
173 1 1 -13.7486858753166650 -5.4617290659990230 12.9499743501268500 0 0 0
174 1 3 -13.5007147794349400 -6.0324967212020490 12.1672006795289840 0 0 0
175 1 3 -13.6695740047968750 -5.0497932166823260 12.2432295175762660 0 0 0
176 1 3 -12.8415830223226200 -5.4550972675969100 12.6307337875573150 0 0 0
177 1 3 -13.7497196479328510 -5.2849602691179784 13.0132795638689110 0 0 0
178 1 2 -13.2439518002062610 -5.5277217043277690 13.8410873735571830 0 0 0
179 1 1 -12.9017350902748000 -5.0743932242907280 13.0180557747525000 0 0 0
180 1 2 -12.7510584574432700 -5.6166031575658880 12.1914331640187400 0 0 0
181 1 1 -12.3106099749022050 -5.7470109637099880 13.0796892860488420 0 0 0
182 1 1 -12.5708139680933950 -6.7124066267661420 13.0622222977644120 0 0 0
183 1 2 -12.3949747798036450 -6.3291544759525150 13.9689738451897970 0 0 0
184 1 3 -12.6510102191286220 -5.4573004027590635 14.3864859155131060 0 0 0
185 1 3 -12.7901015028467800 -4.9499010599130460 13.5360745317269620 0 0 0
186 1 3 -11.9880660532188230 -4.3736473040924820 13.3790052908082590 0 0 0
187 1 3 -11.2108404665787980 -4.9095722527726800 13.7087094564692280 0 0 0
188 1 2 -10.3777767650845800 -4.6201527644701320 13.2372847763309880 0 0 0
189 1 2 -11.2620551427021360 -4.1955867063142405 13.0428743518676140 0 0 0
190 1 1 -10.5836447317459190 -3.9151045786297490 12.3638389401578870 0 0 0
191 1 3 -10.9911299788761950 -3.8435357550100395 13.2742419700610550 0 0 0
192 1 3 -11.8115788985358230 -3.2719720043808660 13.2876004578520930 0 0 0
193 1 1 -12.6287608426292370 -3.8330443189431920 13.1556477084325270 0 0 0
194 1 1 -13.3606229523054250 -3.1805741154440670 13.3522704079515060 0 0 0
195 1 3 -13.3558378339233400 -2.2007282367678633 13.1525727447620560 0 0 0
196 1 2 -14.0151817166403720 -2.6352036834461003 13.7661660388562600 0 0 0
197 1 1 -15.0062497760924200 -2.7363482800200503 13.6792530241930560 0 0 0
198 1 1 -14.3185699784140270 -2.2430451362091880 13.1465725344327070 0 0 0
199 1 1 -13.9787733631160400 -3.1413346481884705 12.8679792593881470 0 0 0
200 1 1 -13.7246613469428040 -2.5291839840003740 13.6167773947827570 0 0 0
201 1 1 -13.5777991390696060 -3.0026743734479420 12.7483084298799230 0 0 0
202 1 3 -14.4364654422405020 -3.2432867412438124 13.2008544145737370 0 0 0
203 1 2 -14.6462645600822570 -3.9695915563893790 12.5462815418932490 0 0 0
204 1 2 -15.0844605283157160 -3.2499369826812394 13.0848737698031000 0 0 0
205 1 1 -15.5445188912541140 -3.1995940227998630 13.9713340842452210 0 0 0
206 1 2 -15.8863800948312070 -2.3170208043057228 13.6485409128711730 0 0 0
207 1 3 -16.5806700113330830 -2.8917811662716360 13.2153988597793170 0 0 0
208 1 1 -16.4169842394601520 -3.4371093761853415 12.3933136381881020 0 0 0
209 1 2 -16.0551744712219200 -3.5412592960579570 13.3197295738228070 0 0 0
210 1 1 -16.8057429129155940 -4.1995819578591600 13.3768109831651550 0 0 0
211 1 3 -17.4497404662674920 -4.7116117053392730 13.9452234117521990 0 0 0
212 1 1 -17.2587913852602740 -4.9990005451429520 14.8838107029610640 0 0 0
213 1 2 -17.7377135397264070 -5.8714465213662800 14.7864886163966900 0 0 0
214 1 1 -17.1091433010985600 -6.5324497903035520 15.1963350920013620 0 0 0
215 1 3 -16.9861234413116050 -7.5218425054682860 15.2735890192604600 0 0 0
216 1 2 -17.8875392378834100 -7.4660471647578180 14.8442448197586840 0 0 0
217 1 1 -18.4956502662938500 -7.0263229534867230 14.1833033736777100 0 0 0
218 1 3 -19.0466863050489860 -6.8475063956545950 14.9984008663975170 0 0 0
219 1 3 -19.3837287102004440 -6.2297295973393720 15.7088614526323290 0 0 0
220 1 1 -19.9110130415223030 -6.8074678399834990 15.0858126929602320 0 0 0
221 1 1 -18.9720640404693630 -6.9805471338957260 14.7884604919585670 0 0 0
222 1 1 -18.4836136904570620 -7.1911036401712700 15.6352675616255000 0 0 0
223 1 3 -17.5110795788340030 -7.0592885008003760 15.4434286428363720 0 0 0
224 1 1 -16.8431035463488930 -6.9384377878950900 16.1777331608775830 0 0 0
225 1 1 -17.1446826179610530 -7.5588802079248620 16.9016815478452930 0 0 0
226 1 2 -17.5535401522177460 -7.1167447650175095 16.1033384093348800 0 0 0
227 1 3 -18.2614669291266400 -6.8470784299514330 16.7561168911090700 0 0 0
228 1 1 -18.2988022036631150 -6.1012979282565600 16.0909721545539130 0 0 0
229 1 3 -17.7384809577172650 -6.8345716999140524 15.7058102702235870 0 0 0
230 1 2 -17.8080451671916330 -6.1730372167636640 16.4524915599069140 0 0 0
231 1 3 -18.6577900700502800 -6.1691487612994790 15.9253118182818680 0 0 0
232 1 1 -17.7055609220906100 -5.8741890532508250 15.8462016393928340 0 0 0
233 1 3 -17.9120756606400700 -4.9540814713121250 16.1789984248652380 0 0 0
234 1 2 -18.6667242604064600 -4.5408601184935230 16.6886587082358280 0 0 0
235 1 3 -18.8942205237573550 -3.5757508302273973 16.8183102098230930 0 0 0
236 1 1 -19.3539817698718930 -3.9878249357492113 17.6049578616530620 0 0 0
237 1 1 -20.1358403109070670 -3.6759354230816150 18.1447931640354840 0 0 0
238 1 2 -20.1093425336361950 -4.6068394281749230 17.7804916390579700 0 0 0
239 1 1 -19.1387941643567960 -4.8188981009107890 17.6661807375367270 0 0 0
240 1 3 -18.6278538392452200 -5.0751506578958030 18.4867138637501200 0 0 0
241 1 2 -18.8580773679373730 -5.9602071275839080 18.8912780394994800 0 0 0
242 1 1 -18.7823307931060660 -6.9433227552530170 18.7247063761407300 0 0 0
243 1 3 -19.3104009030439300 -6.8903269278358820 17.8771608603915270 0 0 0
244 1 2 -18.3792527434958760 -6.9405241053882180 18.2383302781666860 0 0 0
245 1 3 -18.0722786906969400 -6.6192170079300060 19.1341699290145220 0 0 0
246 1 3 -18.2703254454742530 -5.6977846200359960 19.4684450215088880 0 0 0
247 1 3 -18.0832868999360500 -4.7932030630912825 19.0853669755203050 0 0 0
248 1 1 -18.5887073832266870 -5.3711397761021855 19.7261003762607460 0 0 0
249 1 1 -18.6744156401696200 -4.6787593865384520 20.4425244761062070 0 0 0
250 1 1 -18.9409741633891400 -5.0529400595176210 21.3307448190774130 0 0 0
251 1 2 -18.4426198512519230 -5.6327098315652290 21.9753454636583070 0 0 0
252 1 3 -18.9793137895822640 -4.7936405778421465 22.0643533510394650 0 0 0
253 1 2 -19.1322528920631320 -3.9564541258711525 22.5894518899524640 0 0 0
254 1 3 -20.0982068588770600 -3.7711069313699896 22.4089543789253440 0 0 0
255 1 2 -19.7143192502936130 -3.1076362750022690 21.7667418034372380 0 0 0
256 1 3 -19.1252937241499000 -2.7576840007376990 21.0383309747916340 0 0 0
257 1 3 -19.1535730491850400 -1.9549491603069833 21.6339961959807100 0 0 0
258 1 3 -20.0534328675194400 -2.2351093950797550 21.2996871320903500 0 0 0
259 1 1 -20.3455949225212720 -1.5972361777721926 20.5871149657388950 0 0 0
260 1 1 -20.7405052017940800 -0.7173584535770855 20.3228025335872570 0 0 0
261 1 2 -21.5625386827675560 -0.3543392374000473 19.8840793807393150 0 0 0
262 1 1 -21.5191468026360760 -1.2591617759416530 20.3076514743500500 0 0 0
263 1 3 -20.6984833447247420 -0.6877576904923927 20.3046749023436100 0 0 0
264 1 1 -21.5406669941885660 -0.4114989902535831 19.8416329699895750 0 0 0
265 1 1 -20.9938676367013780 -0.9876860833097139 19.2341637144324550 0 0 0
266 1 2 -20.4992797140375700 -1.8535962000801080 19.1594478765546480 0 0 0
267 1 1 -19.7428482264659950 -1.3546963180245137 18.7364699666170600 0 0 0
268 1 2 -20.6835469036644670 -1.5473945142350216 18.4572685986149270 0 0 0
269 1 1 -21.2178217545192900 -1.9519163663324932 17.7150338278586050 0 0 0
270 1 1 -21.9051610154812300 -1.3257863082170116 18.0831722402317200 0 0 0
271 1 3 -22.5644704792695200 -1.7894676356605914 17.4913017666149300 0 0 0
272 1 1 -21.6840622094720030 -1.8632222306194737 17.0228558911985780 0 0 0
273 1 2 -22.5823543535511360 -1.7159836682699727 17.4368510960536200 0 0 0
274 1 1 -23.1536961752526270 -2.3828182336136665 16.9584159539102900 0 0 0
275 1 2 -22.1623321505420140 -2.4762914319335034 17.0503949281676400 0 0 0
276 1 1 -23.0360590300158670 -2.7837317877269440 16.6734575756613030 0 0 0
277 1 3 -22.2189966730117900 -2.2520863342714375 16.4503831114413150 0 0 0
278 1 3 -22.4808510370369000 -2.9791977061804777 17.0850021663723480 0 0 0
279 1 2 -22.6321475036382440 -3.2605680218386865 18.0325991928874960 0 0 0
280 1 3 -22.0690680678650150 -4.0857995597928640 18.0765816641128230 0 0 0
281 1 2 -22.5929561073932350 -4.5967496564409060 17.3950603359251900 0 0 0
282 1 2 -22.7951629127040470 -3.7985831308987660 17.9625483141150220 0 0 0
283 1 2 -22.5618181092450070 -3.8223974423265727 18.9346507167814700 0 0 0
284 1 1 -22.1442486082528660 -3.2795485316951187 18.2059870275067700 0 0 0
285 1 3 -22.8788743948914760 -2.6037099535254242 18.1462612385779600 0 0 0
286 1 1 -23.2064492453518130 -2.1514789657000010 17.3166939712654580 0 0 0
287 1 2 -23.9486797430705400 -2.2414597911336305 17.9807702766028000 0 0 0
288 1 3 -24.5782032952555700 -1.4672620732036710 18.0464816971960700 0 0 0
289 1 3 -23.9635490684982780 -2.1261907846302590 18.4800865112688500 0 0 0
290 1 3 -23.5326323247435800 -2.9390121503621707 18.0881270907141740 0 0 0
291 1 3 -23.4936019458447730 -2.1242271785699980 17.5096790988733800 0 0 0
292 1 1 -24.4147087008962600 -2.5088237163485765 17.4492816740338270 0 0 0
293 1 2 -23.9055652736962080 -3.1547420167189513 16.8804561122087340 0 0 0
294 1 1 -24.8813978309415900 -3.1506911136055478 17.0989381718930500 0 0 0
295 1 1 -23.9942547018476340 -3.2062333519206820 16.6407983152288100 0 0 0
296 1 1 -23.8937838958022580 -3.0367793587092360 15.6603948465908800 0 0 0
297 1 2 -23.4838327825550700 -3.9488421038209820 15.6694299850302410 0 0 0
298 1 3 -22.5186608624810000 -3.9876078938546975 15.9281583719992740 0 0 0
299 1 1 -22.4410724235209820 -4.8412579897222740 16.4431938542381420 0 0 0
300 1 1 -22.2613379736469130 -5.5035768723775190 15.7158499017598300 0 0 0
301 1 1 -22.1156852048231400 -4.5906223187528780 16.0970312942096700 0 0 0
302 1 2 -21.1669264838424400 -4.3891062319346530 16.3404407355149170 0 0 0
303 1 2 -21.9282218458437970 -4.8818690199011730 15.9189977303639460 0 0 0
304 1 1 -22.8253025484325530 -5.3208832760869810 15.9691245286707300 0 0 0
305 1 2 -23.7755078263191950 -5.0147084548438040 16.0271495983654370 0 0 0
306 1 1 -24.6198867453381670 -5.5419073725200130 16.1224677095373600 0 0 0
307 1 1 -24.3587161928546260 -5.4138104564965090 15.1657121908071520 0 0 0
308 1 3 -24.1173442439784120 -6.3543523711075870 15.4047111220922620 0 0 0
309 1 3 -23.4936554385181080 -5.5776300853229690 15.3168773887717610 0 0 0
310 1 3 -23.5839252367997680 -6.5676189579628650 15.4253826677556700 0 0 0
311 1 3 -23.7182237219723300 -6.7638199425892935 16.3967060384783030 0 0 0
312 1 2 -23.0469457263176500 -6.8617148926998930 15.6619935564197230 0 0 0
313 1 1 -22.5841330309653370 -6.1537684534497260 16.1954879314357460 0 0 0
314 1 2 -22.7398016474514500 -5.1683844934911680 16.1263089368081220 0 0 0
315 1 2 -23.5257927645854070 -5.7778808258048310 16.0227126787545300 0 0 0
316 1 1 -24.1464815315220560 -6.0453303614022370 15.2856806573963040 0 0 0
317 1 2 -23.5240464501536160 -5.3219277157801725 14.9869112115206220 0 0 0
318 1 1 -23.3919892391061350 -6.2458148947955010 14.6277547366222030 0 0 0
319 1 2 -22.4937690033794340 -5.8946978517473170 14.3633360719781000 0 0 0
320 1 1 -22.4696403101437880 -6.6679250193709720 14.9970059808513570 0 0 0
321 1 3 -21.6422001347076800 -7.1918661709862860 15.1990664315048140 0 0 0
322 1 2 -20.6942788884677640 -7.3180017579169270 14.9066025454665020 0 0 0
323 1 1 -19.7001823577031770 -7.2997325626299100 14.7996524448336440 0 0 0
324 1 3 -18.7543693666078040 -7.0050558952068590 14.6632579891117720 0 0 0
325 1 3 -18.4054547654458100 -6.2031338599798240 14.1783047434134910 0 0 0
326 1 2 -17.5712443712654580 -6.2664575687371750 14.7261031791092060 0 0 0
327 1 2 -16.8340650450234260 -5.9632773862022360 14.1222419219652940 0 0 0
328 1 2 -17.2448007237699700 -6.7295808575157510 13.6282022554834700 0 0 0
329 1 3 -17.9880380377183150 -7.3984999314805710 13.6161371139221520 0 0 0
330 1 2 -17.2469369353643530 -8.0328299677757880 13.3961494753070460 0 0 0
331 1 3 -16.9149046331274560 -8.1275466078786580 14.3346500391635040 0 0 0
332 1 3 -17.3677388782346540 -7.2718466325902310 14.0842130236295000 0 0 0
333 1 2 -16.4689541717557580 -7.7053036316959720 14.1497956533868510 0 0 0
334 1 1 -16.4272512473459140 -7.5109972072357910 13.1697416347178980 0 0 0
335 1 3 -17.1289598933903130 -7.3802134545128455 12.4693841644998400 0 0 0
336 1 2 -17.3372280806927460 -7.1848751397126100 11.5110171654181920 0 0 0
337 1 3 -16.9035321869439380 -7.8624658510571900 12.1049689308377140 0 0 0
338 1 3 -17.2064640850162000 -7.1365299377497030 12.7224228278217400 0 0 0
339 1 2 -17.4532224744986200 -6.8151570251601250 13.6366600772672730 0 0 0
340 1 1 -17.3166338147716300 -6.4308438943633390 14.5497027682358590 0 0 0
341 1 2 -16.8187462679899480 -7.2526914302443990 14.2728009471404590 0 0 0
342 1 1 -16.1002737824683670 -7.9082695837268330 14.5052113002338690 0 0 0
343 1 1 -16.0381510439839900 -8.4067853257062150 15.3698631494552470 0 0 0
344 1 3 -16.8425474335584940 -8.8901049623974360 15.0243945152376470 0 0 0
345 1 3 -16.0360440061557600 -8.7239483513864910 14.4569932443499280 0 0 0
346 1 2 -16.5545179236969240 -8.1663877064597830 15.1053071529300470 0 0 0
347 1 2 -16.4597273452908870 -7.8109157158323510 14.1754391998717540 0 0 0
348 1 2 -16.5726331254731640 -7.8616552126041710 15.1677485207333350 0 0 0
349 1 2 -17.0618702291713300 -8.7098875103308550 15.3706007464010400 0 0 0
350 1 3 -16.1233555857809280 -8.9145976015150960 15.0926006695860780 0 0 0
351 1 2 -15.7994909281143720 -8.9078211539009330 16.0386798223382460 0 0 0
352 1 2 -15.1874813605995150 -9.4361191930181130 15.4501685895353200 0 0 0
353 1 1 -14.2014700919165550 -9.5195274604009890 15.3058604506019730 0 0 0
354 1 3 -14.4591315207940950 -9.0948381360580700 16.1737599642888630 0 0 0
355 1 2 -14.0818783057509250 -9.7090312646940260 15.4806172571383300 0 0 0
356 1 1 -13.4041912896803460 -9.5815760043385510 14.7563966658423680 0 0 0
357 1 2 -14.3659912901697950 -9.8408852962824480 14.8441431767134590 0 0 0
358 1 1 -15.1538286878107200 -9.2254982490725940 14.8194244185586990 0 0 0
359 1 2 -14.3796761192477230 -9.8210710266066900 14.6049929207613000 0 0 0
360 1 3 -14.8798434171350550 -10.5932482659160510 14.9968793650492580 0 0 0
361 1 1 -14.3838316948356230 -9.7713199704209950 14.7168682074034520 0 0 0
362 1 3 -14.6571147025557560 -10.7203691127450720 14.8737825889794330 0 0 0
363 1 1 -15.5091720374929450 -10.9778074931486530 14.4180153476435550 0 0 0
364 1 1 -15.8448676051596740 -11.9048476565984270 14.5850633084210730 0 0 0
365 1 3 -15.4779604127295230 -11.4528972390277500 13.7719704894878880 0 0 0
366 1 1 -15.8847188301789170 -10.9651160449469330 12.9995605617065610 0 0 0
367 1 2 -16.0929831268668100 -11.7753806060395530 13.5473719560408550 0 0 0
368 1 1 -17.0928614082606030 -11.7620760837673740 13.5555213170037040 0 0 0
369 1 2 -17.7629620388824140 -11.0782669858570790 13.8442604076294080 0 0 0
370 1 1 -18.5022217801580670 -10.4809293871126810 14.1551990318872040 0 0 0
371 1 2 -18.7617774546087970 -9.5312836517245060 14.3307092285125840 0 0 0
372 1 1 -18.4891872831016040 -9.8988596367110960 13.4415621688768820 0 0 0
373 1 3 -19.1722020631321900 -9.9159804037857380 14.1717660373920720 0 0 0
374 1 1 -18.3921853769636850 -9.5786021868519830 13.6447462009178580 0 0 0
375 1 1 -18.8636216606382450 -8.8950259423269320 13.0875466420916260 0 0 0
376 1 3 -19.0973387279425920 -9.8239524871653220 13.3747256920678820 0 0 0
377 1 1 -19.4895391507093700 -9.0327149514821730 13.8438972923460940 0 0 0
378 1 2 -20.1400401429149380 -9.7599151132916280 13.6247435020437740 0 0 0
379 1 3 -19.7249215811630270 -10.4370444843823250 14.2323390867013180 0 0 0
380 1 2 -18.8505151515039880 -10.9218253447052370 14.2123162688299410 0 0 0
381 1 1 -17.9895456804016400 -11.2376812627236100 14.6110224374334820 0 0 0
382 1 2 -18.5375141890414300 -10.7577277739205780 15.2961320360561270 0 0 0
383 1 3 -18.1673291980339400 -10.0210937111751210 14.7301520628804800 0 0 0
384 1 1 -18.7723760359787840 -9.2329239597817110 14.8428763587594070 0 0 0
385 1 2 -19.5490479049720670 -9.3732331316146920 14.2287964419619060 0 0 0
386 1 2 -19.0996888017431130 -9.1972187602299740 13.3529566521536830 0 0 0
387 1 2 -18.7397152316802800 -9.4858005299535610 14.2401655289349180 0 0 0
388 1 1 -18.6254599799839970 -9.1185742679913580 15.1632530708208900 0 0 0
389 1 2 -19.1368420085545060 -9.4086317448802140 14.3543308984483050 0 0 0
390 1 3 -18.1827875289123600 -9.5752059716386860 14.6033953014740570 0 0 0
391 1 3 -17.5555496108344540 -9.0069308694062700 15.1359701810055910 0 0 0
392 1 3 -17.9424361197429580 -8.2831056394763290 14.5646595249335590 0 0 0
393 1 3 -17.1232023075174500 -7.7886039862299710 14.8550456055970080 0 0 0
394 1 2 -17.6273713844749440 -7.5594771550447120 14.0223905527264740 0 0 0
395 1 2 -17.6463210083015550 -8.3688285509407210 13.4353716180080000 0 0 0
396 1 3 -16.7629639966439700 -8.7051111457817090 13.1088836299251470 0 0 0
397 1 1 -16.2786147651104050 -8.7421111156622310 12.2347916301095160 0 0 0
398 1 2 -16.3735792708748560 -7.9508961660487330 12.8389113584358000 0 0 0
399 1 1 -17.2657803337714200 -7.6349633562618950 12.5161673064899370 0 0 0
400 1 2 -16.3567030488281130 -7.5307352778007360 12.9195467775347530 0 0 0
401 1 1 -16.1246538350623750 -8.0752116352820500 13.7255856466562010 0 0 0
402 1 1 -16.5532674124596700 -8.2839838765870370 14.6046217963856560 0 0 0